 Job started on host n07126
 at Sat Dec  9 17:32:04 2023

 +-------------------------------------------------+
 |                                                 |
 |      CCC   AA    SSS  TTTTT  EEEEE  PPPP        |
 |     C     A  A  S       T    E      P   P       |
 |     C     AAAA   SS     T    EEE    PPPP        |
 |     C     A  A     S    T    E      P           |
 |      CCC  A  A  SSS     T    EEEEE  P           |
 |                                                 |
 +-------------------------------------------------+
 |                                                 |
 | Materials Studio CASTEP version 2019            |
 | Ab Initio Total Energy Program                  |
 |                                                 |
 | Authors:                                        |
 | M. Segall, M. Probert, C. Pickard, P. Hasnip,   |
 | S. Clark, K. Refson, J. R. Yates, M. Payne      |
 |                                                 |
 | Contributors:                                   |
 | P. Lindan, P. Haynes, J. White, V. Milman,      |
 | N. Govind, M. Gibson, P. Tulip, V. Cocula,      |
 | B. Montanari, D. Quigley, M. Glover,            |
 | L. Bernasconi, A. Perlov, M. Plummer,           |
 | E. McNellis, J. Meyer, J. Gale, D. Jochym       |
 | J. Aarons, B. Walker, R. Gillen, D. Jones       |
 | T. Green, I. J. Bush, C. J. Armstrong,          |
 | E. J. Higgins, E. L. Brown, M. S. McFly,        |
 | J. Wilkins, B-C. Shih, P. J. P. Byrne           |
 |                                                 |
 | Copyright (c) 2000 - 2018                       |
 |                                                 |
 | Please cite                                     |
 |                                                 |
 |     "First principles methods using CASTEP"     |
 |                                                 |
 |         Zeitschrift fuer Kristallographie       |
 |           220(5-6) pp. 567-570 (2005)           |
 |                                                 |
 | S. J. Clark, M. D. Segall, C. J. Pickard,       |
 | P. J. Hasnip, M. J. Probert, K. Refson,         |
 | M. C. Payne                                     |
 |                                                 |
 |       in all publications arising from          |
 |              your use of CASTEP                 |
 |                                                 |
 +-------------------------------------------------+
 |                                                 |
 |              http://www.castep.org              |
 |                                                 |
 +-------------------------------------------------+
 
 
 This version was compiled for x86_64-rhel6-intel18.0 on Oct 16 2018
 Code version:    8027
 Intel(R) Math Kernel Library Version 2018.0.3 
 Fundamental constants values: CODATA 2014
 
License checkout of MS_castep successful
 
 
 Atomic calculation performed for H: 1s1
 
 Converged in 41 iterations to an ae energy of -12.488 eV
 
 Identity difference: 2.63E-05
 
   ============================================================                
   | Pseudopotential Report - Date of generation  9-12-2023   |                
   ------------------------------------------------------------                
   | Element: H Ionic charge:  1.00 Level of theory: PBE      |                
   | Atomic Solver: Koelling-Harmon                           |                
   |                                                          |                
   |               Reference Electronic Structure             |                
   |         Orbital         Occupation         Energy        |                
   |            1s              1.000           -0.239        |                
   |                                                          |                
   |                 Pseudopotential Definition               |                
   |        Beta     l      e      Rc     scheme   norm       |                
   |          1      0   -0.239   0.599     qc      0         |                
   |          2      0    0.250   0.599     qc      0         |                
   |         loc     1    0.000   0.599     pn      0         |                
   |                                                          |                
   | Augmentation charge Rinner = 0.421                       |                
   | No partial core correction                               |                
   ------------------------------------------------------------                
   | "1|0.6|9|10|15|10UU(qc=8)[]"                             |                
   ------------------------------------------------------------                
   |      Author: Chris J. Pickard, Cambridge University      |                
   ============================================================                
 
 Doing a self consistent calculation for the test configuration
 
 Atomic calculation performed for H: 1s1
 
 Converged in 41 iterations to an ae energy of -12.488 eV
 
 ---------------------------------------
 AE eigenvalue nl 10 =       -0.23860176
 ---------------------------------------
 PS eigenvalue nl 10 =       -0.23857601
 ---------------------------------------
 Maximum eigenvalue error:   2.57E-05
 
 Derived cutoff energies: C=   1 M=   6 F=  10 E=  20
 
 Checking for ghost states up to   1.51185 Ha
 
 No Ghost States Identified
 
 ***************************************
 
 Atomic calculation performed for Li: 1s2 2s1
 
 Converged in 47 iterations to an ae energy of -202.784 eV
 
 Identity difference: 4.87E-05
 
   ============================================================                
   | Pseudopotential Report - Date of generation  9-12-2023   |                
   ------------------------------------------------------------                
   | Element: Li Ionic charge:  3.00 Level of theory: PBE     |                
   | Atomic Solver: Koelling-Harmon                           |                
   |                                                          |                
   |               Reference Electronic Structure             |                
   |         Orbital         Occupation         Energy        |                
   |            1s              2.000           -1.906        |                
   |            2s              1.000           -0.106        |                
   |                                                          |                
   |                 Pseudopotential Definition               |                
   |        Beta     l      e      Rc     scheme   norm       |                
   |          1      0   -1.906   1.001     qc      0         |                
   |          2      0   -0.106   1.001     qc      0         |                
   |          3      0    0.250   1.001     qc      0         |                
   |         loc     1    0.000   1.001     pn      0         |                
   |                                                          |                
   | Augmentation charge Rinner = 0.699                       |                
   | No partial core correction                               |                
   ------------------------------------------------------------                
   | "1|1|12|15|20|10U:20UU(qc=7)[]"                          |                
   ------------------------------------------------------------                
   |      Author: Chris J. Pickard, Cambridge University      |                
   ============================================================                
 
 Doing a self consistent calculation for the test configuration
 
 Atomic calculation performed for Li: 1s2 2s1
 
 Converged in 47 iterations to an ae energy of -202.784 eV
 
 ---------------------------------------
 AE eigenvalue nl 10 =       -1.90562286
 AE eigenvalue nl 20 =       -0.10562444
 ---------------------------------------
 PS eigenvalue nl 10 =       -1.90504059
 PS eigenvalue nl 20 =       -0.10550631
 ---------------------------------------
 Maximum eigenvalue error:   5.82E-04
 
 Derived cutoff energies: C=  11 M=  16 F=  16 E=  22
 
 Checking for ghost states up to   1.46000 Ha
 
 No Ghost States Identified
 
 ***************************************
 
 Atomic calculation performed for O: 1s2 2s2 2p4
 
 Converged in 61 iterations to an ae energy of -2040.902 eV
 
 Identity difference: 4.10E-04
 
   ============================================================                
   | Pseudopotential Report - Date of generation  9-12-2023   |                
   ------------------------------------------------------------                
   | Element: O Ionic charge:  6.00 Level of theory: PBE      |                
   | Atomic Solver: Koelling-Harmon                           |                
   |                                                          |                
   |               Reference Electronic Structure             |                
   |         Orbital         Occupation         Energy        |                
   |            2s              2.000           -0.881        |                
   |            2p              4.000           -0.332        |                
   |                                                          |                
   |                 Pseudopotential Definition               |                
   |        Beta     l      e      Rc     scheme   norm       |                
   |          1      0   -0.881   1.100     qc      0         |                
   |          2      0    0.250   1.100     qc      0         |                
   |          3      1   -0.332   1.100     qc      0         |                
   |          4      1    0.250   1.100     qc      0         |                
   |         loc     2    0.000   1.100     pn      0         |                
   |                                                          |                
   | Augmentation charge Rinner = 0.769                       |                
   | Partial core correction Rc = 0.769                       |                
   ------------------------------------------------------------                
   | "2|1.1|14|18|21|20UU:21UU(qc=7)[]"                       |                
   ------------------------------------------------------------                
   |      Author: Chris J. Pickard, Cambridge University      |                
   ============================================================                
 
 Doing a self consistent calculation for the test configuration
 
 Atomic calculation performed for O: 1s2 2s2 2p4
 
 Converged in 61 iterations to an ae energy of -2040.902 eV
 
 ---------------------------------------
 AE eigenvalue nl 10 =      -18.91475256
 AE eigenvalue nl 20 =       -0.88057101
 AE eigenvalue nl 21 =       -0.33186952
 ---------------------------------------
 PS eigenvalue nl 20 =       -0.88059206
 PS eigenvalue nl 21 =       -0.33182157
 ---------------------------------------
 Maximum eigenvalue error:   4.80E-05
 
 Derived cutoff energies: C=  14 M=  17 F=  20 E=  22
 
 Checking for ghost states up to   1.49452 Ha
 
 No Ghost States Identified
 
 ***************************************
 
 Atomic calculation performed for Al: 1s2 2s2 2p6 3s2 3p1
 
 Converged in 54 iterations to an ae energy of -6603.783 eV
 
 Identity difference: 2.43E-04
 
   ============================================================                
   | Pseudopotential Report - Date of generation  9-12-2023   |                
   ------------------------------------------------------------                
   | Element: Al Ionic charge:  3.00 Level of theory: PBE     |                
   | Atomic Solver: Koelling-Harmon                           |                
   |                                                          |                
   |               Reference Electronic Structure             |                
   |         Orbital         Occupation         Energy        |                
   |            3s              2.000           -0.285        |                
   |            3p              1.000           -0.100        |                
   |                                                          |                
   |                 Pseudopotential Definition               |                
   |        Beta     l      e      Rc     scheme   norm       |                
   |          1      0   -0.285   2.192     qc      0         |                
   |          2      0    0.250   2.192     qc      0         |                
   |          3      1   -0.100   2.192     qc      0         |                
   |          4      1    0.250   2.192     qc      0         |                
   |          5      2    0.000   2.000     qc      0         |                
   |          6      2    0.250   2.000     qc      0         |                
   |         loc     3    0.000   2.192     pn      0         |                
   |                                                          |                
   | Augmentation charge Rinner = 1.398                       |                
   | Partial core correction Rc = 1.398                       |                
   ------------------------------------------------------------                
   | "3|2.2|2.2|1.4|3.5|5|7|30UU:31UU:32U2U2[]"               |                
   ------------------------------------------------------------                
   |      Author: Chris J. Pickard, Cambridge University      |                
   ============================================================                
 
 Doing a self consistent calculation for the test configuration
 
 Atomic calculation performed for Al: 1s2 2s2 2p6 3s2 3p1
 
 Converged in 54 iterations to an ae energy of -6603.783 eV
 
 ---------------------------------------
 AE eigenvalue nl 10 =      -55.53347827
 AE eigenvalue nl 20 =       -3.97499262
 AE eigenvalue nl 21 =       -2.55933606
 AE eigenvalue nl 30 =       -0.28491403
 AE eigenvalue nl 31 =       -0.09966789
 ---------------------------------------
 PS eigenvalue nl 30 =       -0.28483758
 PS eigenvalue nl 31 =       -0.09959265
 ---------------------------------------
 Maximum eigenvalue error:   7.65E-05
 
 Derived cutoff energies: C=   1 M=   3 F=   3 E=   6
 
 Checking for ghost states up to   1.42827 Ha
 
 No Ghost States Identified
 
 ***************************************
 
 Atomic calculation performed for P: 1s2 2s2 2p6 3s2 3p3
 
 Converged in 56 iterations to an ae energy of -9303.626 eV
 
 Identity difference: 3.75E-04
 
   ============================================================                
   | Pseudopotential Report - Date of generation  9-12-2023   |                
   ------------------------------------------------------------                
   | Element: P Ionic charge:  5.00 Level of theory: PBE      |                
   | Atomic Solver: Koelling-Harmon                           |                
   |                                                          |                
   |               Reference Electronic Structure             |                
   |         Orbital         Occupation         Energy        |                
   |            3s              2.000           -0.513        |                
   |            3p              3.000           -0.202        |                
   |                                                          |                
   |                 Pseudopotential Definition               |                
   |        Beta     l      e      Rc     scheme   norm       |                
   |          1      0   -0.513   1.807     qc      0         |                
   |          2      0    0.250   1.807     qc      0         |                
   |          3      1   -0.202   1.807     qc      0         |                
   |          4      1    0.250   1.807     qc      0         |                
   |          5      2    0.000   1.807     qc      0         |                
   |          6      2    0.250   1.807     qc      0         |                
   |         loc     3    0.000   1.807     pn      0         |                
   |                                                          |                
   | Augmentation charge Rinner = 1.263                       |                
   | Partial core correction Rc = 1.263                       |                
   ------------------------------------------------------------                
   | "3|1.8|2|4|6|30UU:31UU:32UU[]"                           |                
   ------------------------------------------------------------                
   |      Author: Chris J. Pickard, Cambridge University      |                
   ============================================================                
 
 Doing a self consistent calculation for the test configuration
 
 Atomic calculation performed for P: 1s2 2s2 2p6 3s2 3p3
 
 Converged in 56 iterations to an ae energy of -9303.626 eV
 
 ---------------------------------------
 AE eigenvalue nl 10 =      -76.59181440
 AE eigenvalue nl 20 =       -6.39405755
 AE eigenvalue nl 21 =       -4.57504950
 AE eigenvalue nl 30 =       -0.51336371
 AE eigenvalue nl 31 =       -0.20237188
 ---------------------------------------
 PS eigenvalue nl 30 =       -0.51335498
 PS eigenvalue nl 31 =       -0.20236444
 ---------------------------------------
 Maximum eigenvalue error:   8.73E-06
 
 Derived cutoff energies: C=   1 M=   3 F=   6 E=   6
 
 Checking for ghost states up to   1.41610 Ha
 
 No Ghost States Identified
 
 ***************************************
 
 Atomic calculation performed for S: 1s2 2s2 2p6 3s2 3p4
 
 Converged in 57 iterations to an ae energy of -10858.586 eV
 
 Identity difference: 6.43E-04
 
   ============================================================                
   | Pseudopotential Report - Date of generation  9-12-2023   |                
   ------------------------------------------------------------                
   | Element: S Ionic charge:  6.00 Level of theory: PBE      |                
   | Atomic Solver: Koelling-Harmon                           |                
   |                                                          |                
   |               Reference Electronic Structure             |                
   |         Orbital         Occupation         Energy        |                
   |            3s              2.000           -0.634        |                
   |            3p              4.000           -0.258        |                
   |                                                          |                
   |                 Pseudopotential Definition               |                
   |        Beta     l      e      Rc     scheme   norm       |                
   |          1      0   -0.634   1.796     qc      0         |                
   |          2      0    0.250   1.796     qc      0         |                
   |          3      1   -0.258   1.796     qc      0         |                
   |          4      1    0.250   1.796     qc      0         |                
   |          5      2    0.000   1.796     qc      0         |                
   |          6      2    0.250   1.796     qc      0         |                
   |         loc     3    0.000   1.796     pn      0         |                
   |                                                          |                
   | Augmentation charge Rinner = 1.255                       |                
   | Partial core correction Rc = 1.255                       |                
   ------------------------------------------------------------                
   | "3|1.8|5|6.5|8|30UU:31UU:32UU[]"                         |                
   ------------------------------------------------------------                
   |      Author: Chris J. Pickard, Cambridge University      |                
   ============================================================                
 
 Doing a self consistent calculation for the test configuration
 
 Atomic calculation performed for S: 1s2 2s2 2p6 3s2 3p4
 
 Converged in 57 iterations to an ae energy of -10858.586 eV
 
 ---------------------------------------
 AE eigenvalue nl 10 =      -88.41643994
 AE eigenvalue nl 20 =       -7.78013754
 AE eigenvalue nl 21 =       -5.75147931
 AE eigenvalue nl 30 =       -0.63416288
 AE eigenvalue nl 31 =       -0.25756675
 ---------------------------------------
 PS eigenvalue nl 30 =       -0.63414952
 PS eigenvalue nl 31 =       -0.25755711
 ---------------------------------------
 Maximum eigenvalue error:   1.34E-05
 
 Derived cutoff energies: C=   3 M=   6 F=   6 E=   6
 
 Checking for ghost states up to   1.42480 Ha
 
 No Ghost States Identified
 
 ***************************************
 
 Pseudo atomic calculation performed for H 1s1
 
 Converged in 13 iterations to a total energy of -12.4592 eV
 
 Pseudo atomic calculation performed for Li 1s2 2s1
 
 Converged in 18 iterations to a total energy of -200.2419 eV
 
 Pseudo atomic calculation performed for O 2s2 2p4
 
 Converged in 24 iterations to a total energy of -431.8855 eV
 
 Pseudo atomic calculation performed for Al 3s2 3p1
 
 Converged in 15 iterations to a total energy of -107.1302 eV
 
 Pseudo atomic calculation performed for P 3s2 3p3
 
 Converged in 18 iterations to a total energy of -214.2201 eV
 
 Pseudo atomic calculation performed for S 3s2 3p4
 
 Converged in 20 iterations to a total energy of -299.4459 eV
 Calculation not parallelised.
 Each process may use up to 56 threads.

 ************************************ Title ************************************
 CASTEP calculation from Materials Studio

 ***************************** General Parameters ******************************
  
 output verbosity                               : normal  (1)
 write checkpoint data to                       : 2AlP-Li_5C.check
 type of calculation                            : geometry optimization
 stress calculation                             : off
 density difference calculation                 : off
 electron localisation func (ELF) calculation   : off
 Hirshfeld analysis                             : off
 unlimited duration calculation
 timing information                             : on
 memory usage estimate                          : on
 write extra output files                       : on
 write final potential to formatted file        : off
 write final density to formatted file          : off
 write BibTeX reference list                    : on
 write OTFG pseudopotential files               : on
 write electrostatic potential file             : on
 write bands file                               : on
 checkpoint writing                             : both castep_bin and check files
  
 output         length unit                     : A
 output           mass unit                     : amu
 output           time unit                     : ps
 output         charge unit                     : e
 output           spin unit                     : hbar/2
 output         energy unit                     : eV
 output          force unit                     : eV/A
 output       velocity unit                     : A/ps
 output       pressure unit                     : GPa
 output     inv_length unit                     : 1/A
 output      frequency unit                     : cm-1
 output force constant unit                     : eV/A**2
 output         volume unit                     : A**3
 output   IR intensity unit                     : (D/A)**2/amu
 output         dipole unit                     : D
 output         efield unit                     : eV/A/e
 output        entropy unit                     : J/mol/K
  
 wavefunctions paging                           : none
 random number generator seed                   : randomised (173205598)
 data distribution                              : optimal for this architecture
 optimization strategy                          : maximize speed(+++)

 *********************** Exchange-Correlation Parameters ***********************
  
 using functional                               : Perdew Burke Ernzerhof
 relativistic treatment                         : Koelling-Harmon
 DFT+D: Semi-empirical dispersion correction    : on
 SEDC with                                      : G06 correction scheme

 ************************* Pseudopotential Parameters **************************
  
 pseudopotential representation                 : reciprocal space
 <beta|phi> representation                      : reciprocal space
 spin-orbit coupling                            : off

 **************************** Basis Set Parameters *****************************
  
 plane wave basis set cut-off                   :   450.0000   eV
 size of standard grid                          :     1.7500
 size of   fine   grid                          :     2.1000
 size of   fine   gmax                          :    22.8225   1/A
 largest prime factor in FFT                    :          5
 finite basis set correction                    : none

 **************************** Electronic Parameters ****************************
  
 number of  electrons                           :  206.0    
 net charge of system                           : -1.000    
 treating system as non-spin-polarized
 number of bands                                :        124

 ********************* Electronic Minimization Parameters **********************
  
 Method: Treating system as metallic with density mixing treatment of electrons,
         and number of  SD  steps               :          1
         and number of  CG  steps               :          4
  
 total energy / atom convergence tol.           : 0.1000E-05   eV
 eigen-energy convergence tolerance             : 0.4435E-06   eV
 max force / atom convergence tol.              : ignored
 convergence tolerance window                   :          3   cycles
 max. number of SCF cycles                      :        300
 number of fixed-spin iterations                :         10
 smearing scheme                                : Gaussian
 smearing width                                 : 0.1000       eV
 Fermi energy convergence tolerance             : 0.2721E-13   eV
 periodic dipole correction                     : NONE

 ************************** Density Mixing Parameters **************************
  
 density-mixing scheme                          : Pulay
 max. length of mixing history                  :         20
 charge density mixing amplitude                : 0.3000    
 cut-off energy for mixing                      :  450.0       eV
 charge density mixing g-vector                 :  1.500       1/A

 ********************** Geometry Optimization Parameters ***********************
  
 optimization method                            : BFGS
 variable cell method                           : fixed basis quality
 max. number of steps                           :        100
 estimated bulk modulus                         :  500.0       GPa
 estimated <frequency>                          :  1668.       cm-1
 geom line minimiser                            : on
 with line minimiser tolerance                  :     0.4000
 total energy convergence tolerance             : 0.1000E-04   eV/atom
        max ionic |force| tolerance             : 0.3000E-01   eV/A
 max ionic |displacement| tolerance             : 0.1000E-02   A
   max |stress component| tolerance             : 0.5000E-01   GPa
 convergence tolerance window                   :          2   steps
 backup results every                           :          5   steps
 write geom trajectory file                     : on

 *******************************************************************************
  
 
                           -------------------------------
                                      Unit Cell
                           -------------------------------
        Real Lattice(A)                      Reciprocal Lattice(1/A)
    19.9999989     0.0000000     0.0000000        0.314159283   0.000000000   0.000000000
     0.0000000    19.9999989     0.0000000        0.000000000   0.314159283   0.000000000
     0.0000000     0.0000000    14.9999992        0.000000000   0.000000000   0.418879044
 
                       Lattice parameters(A)       Cell Angles
                    a =     19.999999          alpha =   90.000000
                    b =     19.999999          beta  =   90.000000
                    c =     14.999999          gamma =   90.000000
 
                       Current cell volume =          5999.999002       A**3
                                   density =             0.117859   AMU/A**3
                                           =             0.195710     g/cm^3
 
                           -------------------------------
                                     Cell Contents
                           -------------------------------
                         Total number of ions in cell =   55
                      Total number of species in cell =    6
                        Max number of any one species =   22
 
            xxxxxxxxxxxxxxxxxxxxxxxxxxxxxxxxxxxxxxxxxxxxxxxxxxxxxxxxxxxx
            x  Element    Atom        Fractional coordinates of atoms  x
            x            Number           u          v          w      x
            x----------------------------------------------------------x
            x  H            1         0.485667   0.174847   0.240818   x 
            x  H            2         0.561534   0.372486   0.085889   x 
            x  H            3         0.465720   0.394589   0.266673   x 
            x  H            4         0.427697   0.311668   0.406107   x 
            x  H            5         0.712008   0.398967   0.206196   x 
            x  H            6         0.665123   0.525420   0.331133   x 
            x  H            7         0.628854   0.276531   0.280822   x 
            x  H            8         0.647778   0.342103   0.397117   x 
            x  H            9         0.842296   0.411893   0.356829   x 
            x  H           10         0.495252   0.591130   0.463404   x 
            x  H           11         0.596161   0.412184   0.449289   x 
            x  H           12         0.179440   0.578179   0.358366   x 
            x  H           13         0.325878   0.358713   0.441965   x 
            x  H           14         0.363410   0.518125   0.273786   x 
            x  H           15         0.338087   0.687019   0.406183   x 
            x  H           16         0.471510   0.445870   0.533144   x 
            x  H           17         0.537584   0.533787   0.678235   x 
            x  H           18         0.318907   0.533386   0.544228   x 
            x  H           19         0.417491   0.626121   0.464432   x 
            x  H           20         0.340561   0.566528   0.686055   x 
            x  Li           1         0.672375   0.528158   0.490474   x 
            x  Li           2         0.694300   0.392116   0.549995   x 
            x  O            1         0.516799   0.211540   0.231435   x 
            x  O            2         0.601286   0.384357   0.119665   x 
            x  O            3         0.458594   0.274787   0.390906   x 
            x  O            4         0.497068   0.362375   0.240296   x 
            x  O            5         0.596801   0.309103   0.304123   x 
            x  O            6         0.682115   0.406255   0.256816   x 
            x  O            7         0.668838   0.378356   0.432253   x 
            x  O            8         0.699753   0.513913   0.374696   x 
            x  O            9         0.802826   0.397870   0.323504   x 
            x  O           10         0.550683   0.554042   0.415479   x 
            x  O           11         0.455657   0.477816   0.358925   x 
            x  O           12         0.547112   0.427473   0.449828   x 
            x  O           13         0.571240   0.468809   0.292277   x 
            x  O           14         0.218467   0.606025   0.368771   x 
            x  O           15         0.365284   0.379206   0.415626   x 
            x  O           16         0.354178   0.641052   0.404703   x 
            x  O           17         0.334480   0.510000   0.324944   x 
            x  O           18         0.312760   0.515816   0.480813   x 
            x  O           19         0.430475   0.473429   0.535581   x 
            x  O           20         0.456291   0.609365   0.503710   x 
            x  O           21         0.492661   0.553868   0.684301   x 
            x  O           22         0.354722   0.572290   0.624510   x 
            x  Al           1         0.507326   0.282398   0.297636   x 
            x  Al           2         0.591396   0.391546   0.234380   x 
            x  Al           3         0.726601   0.429206   0.363362   x 
            x  Al           4         0.296506   0.574751   0.391885   x 
            x  Al           5         0.381048   0.464595   0.426632   x 
            x  Al           6         0.438322   0.552169   0.596990   x 
            x  P            1         0.532016   0.485695   0.378380   x 
            x  S            1         0.798143   0.448328   0.514686   x 
            x  S            2         0.625853   0.472017   0.626426   x 
            x  S            3         0.713146   0.501769   0.691721   x 
            x  S            4         0.775087   0.533686   0.589911   x 
            xxxxxxxxxxxxxxxxxxxxxxxxxxxxxxxxxxxxxxxxxxxxxxxxxxxxxxxxxxxx
 
 
                         No user defined ionic velocities
 
                           -------------------------------
                                   Details of Species
                           -------------------------------
 
                               Mass of species in AMU
                                    H    1.0080000
                                    Li    6.9400001
                                    O   15.9989996
                                    Al   26.9820004
                                    P   30.9740009
                                    S   32.0600014
 
                          Electric Quadrupole Moment (Barn)
                                    H    0.0028600 Isotope  2
                                    Li   -0.0401000 Isotope  7
                                    O   -0.0255800 Isotope 17
                                    Al    0.1466000 Isotope 27
                                    P    1.0000000 No Isotope Defined
                                    S   -0.0678000 Isotope 33
 
                          Files used for pseudopotentials:
                                    H 1|0.6|9|10|15|10UU(qc=8)[]
                                    Li 1|1|12|15|20|10U:20UU(qc=7)[]
                                    O 2|1.1|14|18|21|20UU:21UU(qc=7)[]
                                    Al 3|2.2|2.2|1.4|3.5|5|7|30UU:31UU:32U2U2[]
                                    P 3|1.8|2|4|6|30UU:31UU:32UU[]
                                    S 3|1.8|5|6.5|8|30UU:31UU:32UU[]
 
                           -------------------------------
                              k-Points For BZ Sampling
                           -------------------------------
                       MP grid size for SCF calculation is  1  1  1
                            with an offset of   0.000  0.000  0.000
                       Number of kpoints used =             1
 
                           -------------------------------
                               Symmetry and Constraints
                           -------------------------------
 
                      Maximum deviation from symmetry =  0.00000         ANG
 
                      Number of symmetry operations   =           1
         There are no ionic constraints specified or generated for this cell
                      Point group of crystal =     1: C1, 1, 1
                      Space group of crystal =     1: P1, P 1
 
             Set iprint > 1 for details on symmetry rotations/translations
 
                         Centre of mass is NOT constrained
 
                         Number of cell constraints= 6
                         Cell constraints are:  0 0 0 0 0 0
 
                         External pressure/stress (GPa)
                          0.00000   0.00000   0.00000
                                    0.00000   0.00000
                                              0.00000
 
                                --------------------
                                  DFT-D parameters
                                --------------------
 
                          Dispersion-correction scheme : G06       
                        Parameter s6 :   0.750000 (default)
                        Parameter d  :  20.000000 (default)
 
        xxxxxxxxxxxxxxxxxxxxxxxxxxxxxxxxxxxxxxxxxxxxxxxxxxxxxxxxxxxxxxxxxxxx
        x              Atomic DFT-D parameters                             x
        x  Species      C6            R0                                   x
        x               eV A^6        Ang                                  x
        x------------------------------------------------------------------x
        x  H             1.4510       1.0010   (default)                   x
        x  Li           16.6865       0.8250   (default)                   x
        x  O             7.2550       1.3420   (default)                   x
        x  Al          111.8305       1.6390   (default)                   x
        x  P            81.2559       1.7050   (default)                   x
        x  S            57.7290       1.6830   (default)                   x
        xxxxxxxxxxxxxxxxxxxxxxxxxxxxxxxxxxxxxxxxxxxxxxxxxxxxxxxxxxxxxxxxxxxx
 
  
+---------------- MEMORY AND SCRATCH DISK ESTIMATES PER PROCESS --------------+
|                                                     Memory          Disk    |
| Baseline code, static data and system overhead      121.0 MB         0.0 MB |
| BLAS internal memory storage                          0.0 MB         0.0 MB |
| Model and support data                            13029.1 MB         0.0 MB |
| Electronic energy minimisation requirements         963.7 MB         0.0 MB |
| Force calculation requirements                      322.7 MB         0.0 MB |
|                                               ----------------------------- |
| Approx. total storage required per process        14113.8 MB         0.0 MB |
|                                                                             |
| Requirements will fluctuate during execution and may exceed these estimates |
+-----------------------------------------------------------------------------+
Calculating total energy with cut-off of  450.000 eV.
------------------------------------------------------------------------ <-- SCF
SCF loop      Energy           Fermi           Energy gain       Timer   <-- SCF
                               energy          per atom          (sec)   <-- SCF
------------------------------------------------------------------------ <-- SCF
Initial  -8.71058834E+003  0.00000000E+000                        38.27  <-- SCF
      1  -1.09609088E+004  2.81100667E+000   4.09149174E+001      47.75  <-- SCF
      2  -1.24884207E+004 -3.57860098E+000   2.77729438E+001      53.52  <-- SCF
      3  -1.25631376E+004 -3.86498100E+000   1.35848858E+000      58.95  <-- SCF
      4  -1.25303210E+004 -3.60532706E+000  -5.96664848E-001      71.84  <-- SCF
      5  -1.25236715E+004 -3.32558100E+000  -1.20899838E-001      83.37  <-- SCF
      6  -1.25234940E+004 -3.01931240E+000  -3.22681313E-003      94.91  <-- SCF
      7  -1.25222274E+004 -2.81993528E+000  -2.30292175E-002     106.18  <-- SCF
      8  -1.25220442E+004 -2.67586921E+000  -3.33160277E-003     117.81  <-- SCF
      9  -1.25217088E+004 -2.45644039E+000  -6.09867177E-003     129.45  <-- SCF
     10  -1.25214018E+004 -2.21811390E+000  -5.58186584E-003     140.92  <-- SCF
     11  -1.25211837E+004 -1.94050641E+000  -3.96528952E-003     152.26  <-- SCF
     12  -1.25211572E+004 -1.78935393E+000  -4.80641413E-004     163.47  <-- SCF
     13  -1.25212020E+004 -1.64923961E+000   8.13914260E-004     174.76  <-- SCF
     14  -1.25212195E+004 -1.55065656E+000   3.18683361E-004     186.34  <-- SCF
     15  -1.25212615E+004 -1.51062188E+000   7.63777046E-004     197.78  <-- SCF
     16  -1.25212761E+004 -1.45945874E+000   2.65428655E-004     209.17  <-- SCF
     17  -1.25212817E+004 -1.45571789E+000   1.00074505E-004     220.41  <-- SCF
     18  -1.25212832E+004 -1.42809271E+000   2.86051854E-005     231.52  <-- SCF
     19  -1.25212847E+004 -1.39537494E+000   2.61782507E-005     242.71  <-- SCF
     20  -1.25212870E+004 -1.37205780E+000   4.28573588E-005     254.08  <-- SCF
     21  -1.25212946E+004 -1.36186800E+000   1.37666959E-004     264.98  <-- SCF
     22  -1.25213005E+004 -1.34472634E+000   1.06627294E-004     275.98  <-- SCF
     23  -1.25213054E+004 -1.34396925E+000   8.97785959E-005     286.65  <-- SCF
     24  -1.25213107E+004 -1.35267844E+000   9.66949450E-005     297.16  <-- SCF
     25  -1.25213149E+004 -1.35619849E+000   7.62898121E-005     307.37  <-- SCF
     26  -1.25213171E+004 -1.35431250E+000   4.04453166E-005     317.51  <-- SCF
     27  -1.25213194E+004 -1.35215983E+000   4.03891403E-005     327.55  <-- SCF
     28  -1.25213205E+004 -1.34926871E+000   2.14506079E-005     337.62  <-- SCF
     29  -1.25213217E+004 -1.34678998E+000   2.16033945E-005     347.73  <-- SCF
     30  -1.25213226E+004 -1.34521568E+000   1.64021624E-005     357.67  <-- SCF
     31  -1.25213235E+004 -1.34495061E+000   1.59590103E-005     367.96  <-- SCF
     32  -1.25213237E+004 -1.34503395E+000   4.42191118E-006     378.21  <-- SCF
     33  -1.25213242E+004 -1.34490610E+000   8.97151012E-006     387.98  <-- SCF
     34  -1.25213244E+004 -1.34543844E+000   2.19290674E-006     398.03  <-- SCF
     35  -1.25213246E+004 -1.34684854E+000   4.09916718E-006     407.92  <-- SCF
     36  -1.25213247E+004 -1.34700580E+000   1.54153335E-006     417.92  <-- SCF
     37  -1.25213248E+004 -1.34524657E+000   2.17918116E-006     427.89  <-- SCF
     38  -1.25213248E+004 -1.34496213E+000   8.09286568E-007     438.07  <-- SCF
     39  -1.25213249E+004 -1.34512357E+000   2.02357421E-006     448.14  <-- SCF
     40  -1.25213250E+004 -1.34586408E+000   4.30341455E-007     458.33  <-- SCF
     41  -1.25213250E+004 -1.34631285E+000   4.56246895E-007     468.40  <-- SCF
------------------------------------------------------------------------ <-- SCF
 
Final energy, E             =  -12521.32499427     eV
Final free energy (E-TS)    =  -12521.32499427     eV
(energies not corrected for finite basis set)
 
NB est. 0K energy (E-0.5TS)      =  -12521.32499427     eV
 
(SEDC) Total Energy Correction : -0.260325E+01 eV

Dispersion corrected final energy*, Ecor          =  -12523.92824192     eV
Dispersion corrected final free energy* (Ecor-TS) =  -12523.92824192     eV
NB dispersion corrected est. 0K energy* (Ecor-0.5TS) =  -12523.92824192     eV

 * not corrected for finite basis set


Writing analysis data to 2AlP-Li_5C.castep_bin

Writing model to 2AlP-Li_5C.check
 
+---------------- MEMORY AND SCRATCH DISK ESTIMATES PER PROCESS --------------+
|                                                     Memory          Disk    |
| Model and support data                            12978.3 MB         0.0 MB |
| Electronic energy minimisation requirements         963.7 MB         0.0 MB |
| Geometry minimisation requirements                 1108.1 MB         0.0 MB |
|                                               ----------------------------- |
| Approx. total storage required per process        15050.1 MB         0.0 MB |
|                                                                             |
| Requirements will fluctuate during execution and may exceed these estimates |
+-----------------------------------------------------------------------------+
 
 
 ************************************** Forces **************************************
 *                                                                                  *
 *                           Cartesian components (eV/A)                            *
 * -------------------------------------------------------------------------------- *
 *                         x                    y                    z              *
 *                                                                                  *
 * H               1     -0.01303              0.01572             -0.01239         *
 * H               2     -0.02821             -0.01432             -0.02863         *
 * H               3     -0.01214              0.00783             -0.01621         *
 * H               4     -0.04558              0.06599              0.02011         *
 * H               5     -0.03087             -0.00040              0.04946         *
 * H               6      0.02299             -0.01133              0.01611         *
 * H               7      0.00597              0.01215              0.00232         *
 * H               8     -0.00051              0.00481              0.00728         *
 * H               9     -0.02139             -0.01875             -0.02468         *
 * H              10      0.03836             -0.01392             -0.02441         *
 * H              11      0.00011             -0.00966             -0.00317         *
 * H              12      0.00118              0.00021              0.00647         *
 * H              13      0.00808              0.02800             -0.01153         *
 * H              14      0.00138              0.00403             -0.00955         *
 * H              15      0.02166             -0.04813              0.00006         *
 * H              16     -0.00333              0.00542             -0.00304         *
 * H              17     -0.01414              0.00658              0.00157         *
 * H              18      0.00466             -0.00286              0.00550         *
 * H              19     -0.01893              0.00639             -0.03095         *
 * H              20     -0.00260             -0.00242              0.02118         *
 * Li              1     -0.02188              0.00591              0.00522         *
 * Li              2     -0.02230              0.01496              0.00804         *
 * O               1     -0.02045              0.04864              0.02477         *
 * O               2      0.03024              0.01214              0.04602         *
 * O               3      0.05350             -0.04461              0.01534         *
 * O               4      0.01382             -0.01697             -0.00375         *
 * O               5      0.00330             -0.01344              0.00740         *
 * O               6      0.04037             -0.00103             -0.00941         *
 * O               7      0.02137              0.01075             -0.00812         *
 * O               8      0.00629             -0.02227             -0.02368         *
 * O               9      0.01137              0.01382              0.02806         *
 * O              10     -0.01321             -0.03947              0.01487         *
 * O              11      0.01508              0.00979              0.02108         *
 * O              12     -0.03387             -0.02849              0.02343         *
 * O              13     -0.02106             -0.00201              0.01179         *
 * O              14     -0.03552             -0.00728             -0.00320         *
 * O              15     -0.03715             -0.01457              0.02223         *
 * O              16     -0.03852              0.02781             -0.00168         *
 * O              17     -0.02583              0.00790              0.03891         *
 * O              18     -0.01175              0.02375             -0.01156         *
 * O              19      0.00339             -0.00853             -0.00937         *
 * O              20     -0.00305             -0.00525              0.04887         *
 * O              21      0.00213             -0.00721             -0.02323         *
 * O              22     -0.00426              0.00487             -0.02442         *
 * Al              1     -0.02416             -0.02293             -0.07022         *
 * Al              2      0.05443              0.00189             -0.03727         *
 * Al              3     -0.02587             -0.01570             -0.01497         *
 * Al              4      0.05278             -0.00520             -0.00930         *
 * Al              5      0.02463              0.00024             -0.00991         *
 * Al              6      0.02954             -0.00408              0.03595         *
 * P               1      0.04078              0.04279             -0.02397         *
 * S               1      0.00051              0.00372             -0.00135         *
 * S               2      0.00191             -0.00378             -0.01488         *
 * S               3      0.01399              0.01136              0.01244         *
 * S               4      0.00577             -0.01288             -0.02967         *
 *                                                                                  *
 ************************************************************************************
 BFGS: finished iteration     0 with enthalpy= -1.25239282E+004 eV
  
 +-----------+-----------------+-----------------+------------+-----+ <-- BFGS
 | Parameter |      value      |    tolerance    |    units   | OK? | <-- BFGS
 +-----------+-----------------+-----------------+------------+-----+ <-- BFGS
 |  dE/ion   |   0.000000E+000 |   1.000000E-005 |         eV | No  | <-- BFGS
 |  |F|max   |   8.268330E-002 |   3.000000E-002 |       eV/A | No  | <-- BFGS
 |  |dR|max  |   0.000000E+000 |   1.000000E-003 |          A | No  | <-- BFGS
 +-----------+-----------------+-----------------+------------+-----+ <-- BFGS
  

================================================================================
 Starting BFGS iteration          1 ...
================================================================================
  
 +------------+-------------+-------------+-----------------+ <-- min BFGS
 |    Step    |   lambda    |   F.delta'  |    enthalpy     | <-- min BFGS
 +------------+-------------+-------------+-----------------+ <-- min BFGS
 |  previous  |    0.000000 |    0.189248 |   -12523.928242 | <-- min BFGS
 +------------+-------------+-------------+-----------------+ <-- min BFGS
  

--------------------------------------------------------------------------------
 BFGS: starting iteration         1 with trial guess (lambda=  1.000000)
--------------------------------------------------------------------------------
 
                           -------------------------------
                                     Cell Contents
                           -------------------------------
 
            xxxxxxxxxxxxxxxxxxxxxxxxxxxxxxxxxxxxxxxxxxxxxxxxxxxxxxxxxxxxxxxxx
            x  Element         Atom        Fractional coordinates of atoms  x
            x                 Number           u          v          w      x
            x---------------------------------------------------------------x
            x  H                 1         0.485662   0.174853   0.240812   x
            x  H                 2         0.561523   0.372481   0.085875   x
            x  H                 3         0.465716   0.394592   0.266665   x
            x  H                 4         0.427679   0.311693   0.406117   x
            x  H                 5         0.711996   0.398967   0.206221   x
            x  H                 6         0.665132   0.525416   0.331141   x
            x  H                 7         0.628856   0.276535   0.280823   x
            x  H                 8         0.647778   0.342105   0.397121   x
            x  H                 9         0.842288   0.411886   0.356817   x
            x  H                10         0.495266   0.591125   0.463392   x
            x  H                11         0.596161   0.412181   0.449288   x
            x  H                12         0.179441   0.578179   0.358370   x
            x  H                13         0.325881   0.358724   0.441959   x
            x  H                14         0.363411   0.518127   0.273781   x
            x  H                15         0.338095   0.687001   0.406183   x
            x  H                16         0.471509   0.445872   0.533143   x
            x  H                17         0.537579   0.533790   0.678236   x
            x  H                18         0.318909   0.533385   0.544231   x
            x  H                19         0.417484   0.626123   0.464416   x
            x  H                20         0.340560   0.566527   0.686066   x
            x  Li                1         0.672367   0.528160   0.490477   x
            x  Li                2         0.694291   0.392122   0.549999   x
            x  O                 1         0.516791   0.211559   0.231448   x
            x  O                 2         0.601298   0.384362   0.119689   x
            x  O                 3         0.458614   0.274770   0.390914   x
            x  O                 4         0.497073   0.362369   0.240294   x
            x  O                 5         0.596802   0.309098   0.304127   x
            x  O                 6         0.682130   0.406255   0.256811   x
            x  O                 7         0.668846   0.378360   0.432249   x
            x  O                 8         0.699755   0.513905   0.374684   x
            x  O                 9         0.802830   0.397875   0.323518   x
            x  O                10         0.550678   0.554027   0.415486   x
            x  O                11         0.455663   0.477819   0.358936   x
            x  O                12         0.547099   0.427462   0.449840   x
            x  O                13         0.571232   0.468808   0.292283   x
            x  O                14         0.218454   0.606022   0.368769   x
            x  O                15         0.365270   0.379201   0.415637   x
            x  O                16         0.354163   0.641063   0.404703   x
            x  O                17         0.334470   0.510003   0.324964   x
            x  O                18         0.312755   0.515825   0.480807   x
            x  O                19         0.430477   0.473426   0.535576   x
            x  O                20         0.456290   0.609363   0.503735   x
            x  O                21         0.492661   0.553865   0.684289   x
            x  O                22         0.354720   0.572292   0.624497   x
            x  Al                1         0.507317   0.282389   0.297600   x
            x  Al                2         0.591417   0.391547   0.234361   x
            x  Al                3         0.726591   0.429200   0.363354   x
            x  Al                4         0.296526   0.574749   0.391880   x
            x  Al                5         0.381057   0.464595   0.426627   x
            x  Al                6         0.438333   0.552167   0.597008   x
            x  P                 1         0.532031   0.485711   0.378368   x
            x  S                 1         0.798143   0.448329   0.514685   x
            x  S                 2         0.625854   0.472015   0.626418   x
            x  S                 3         0.713151   0.501773   0.691728   x
            x  S                 4         0.775089   0.533682   0.589896   x
            xxxxxxxxxxxxxxxxxxxxxxxxxxxxxxxxxxxxxxxxxxxxxxxxxxxxxxxxxxxxxxxxx
 
 
------------------------------------------------------------------------ <-- SCF
SCF loop      Energy           Fermi           Energy gain       Timer   <-- SCF
                               energy          per atom          (sec)   <-- SCF
------------------------------------------------------------------------ <-- SCF
Initial  -1.25213375E+004  0.00000000E+000                       495.43  <-- SCF
      1  -1.25213255E+004 -1.34569989E+000  -2.18610630E-004     501.30  <-- SCF
      2  -1.25213255E+004 -1.34570011E+000   1.22088050E-007     511.56  <-- SCF
      3  -1.25213253E+004 -1.34546724E+000  -2.76179294E-006     521.11  <-- SCF
      4  -1.25213254E+004 -1.34556357E+000   2.14723711E-006     530.56  <-- SCF
      5  -1.25213255E+004 -1.34553930E+000   5.68472454E-007     540.52  <-- SCF
      6  -1.25213255E+004 -1.34549215E+000   1.20636206E-007     550.38  <-- SCF
------------------------------------------------------------------------ <-- SCF
 
Final energy, E             =  -12521.32546786     eV
Final free energy (E-TS)    =  -12521.32546786     eV
(energies not corrected for finite basis set)
 
NB est. 0K energy (E-0.5TS)      =  -12521.32546786     eV
 
(SEDC) Total Energy Correction : -0.260331E+01 eV

Dispersion corrected final energy*, Ecor          =  -12523.92877784     eV
Dispersion corrected final free energy* (Ecor-TS) =  -12523.92877784     eV
NB dispersion corrected est. 0K energy* (Ecor-0.5TS) =  -12523.92877784     eV

 * not corrected for finite basis set

 
 ************************************** Forces **************************************
 *                                                                                  *
 *                           Cartesian components (eV/A)                            *
 * -------------------------------------------------------------------------------- *
 *                         x                    y                    z              *
 *                                                                                  *
 * H               1     -0.00873              0.02040             -0.01366         *
 * H               2     -0.00003             -0.00559             -0.01028         *
 * H               3     -0.00533              0.00138             -0.01960         *
 * H               4     -0.01705              0.03216              0.00878         *
 * H               5     -0.01040             -0.00478              0.02449         *
 * H               6      0.01478             -0.00782              0.00742         *
 * H               7      0.00881              0.00872              0.00091         *
 * H               8     -0.00044              0.00568              0.00780         *
 * H               9     -0.00394             -0.01212             -0.01331         *
 * H              10      0.02747             -0.00995             -0.01385         *
 * H              11     -0.00822             -0.00754             -0.00213         *
 * H              12     -0.00896             -0.00784              0.00435         *
 * H              13     -0.01251              0.01726             -0.00132         *
 * H              14     -0.01017              0.00059              0.00515         *
 * H              15      0.01072             -0.01681              0.00068         *
 * H              16      0.00065              0.00271             -0.00408         *
 * H              17     -0.00785              0.00396              0.00152         *
 * H              18      0.00426             -0.00260              0.00339         *
 * H              19     -0.00986              0.00175             -0.02075         *
 * H              20      0.00152             -0.00050              0.00612         *
 * Li              1     -0.01888              0.00445              0.00403         *
 * Li              2     -0.01954              0.01240              0.00718         *
 * O               1     -0.02364              0.03120              0.01626         *
 * O               2      0.00352              0.00335              0.01564         *
 * O               3      0.02631             -0.01040              0.02382         *
 * O               4      0.00745             -0.00812             -0.00212         *
 * O               5      0.00053             -0.00863              0.00776         *
 * O               6      0.01880              0.00316              0.01361         *
 * O               7      0.01844              0.00801             -0.00841         *
 * O               8      0.01362             -0.02300             -0.01422         *
 * O               9     -0.00803              0.00740              0.01651         *
 * O              10     -0.00596             -0.01608              0.02233         *
 * O              11      0.01678              0.01160              0.01817         *
 * O              12     -0.02424             -0.02172              0.01434         *
 * O              13     -0.01222             -0.00481              0.00083         *
 * O              14     -0.01337             -0.00300              0.00107         *
 * O              15     -0.01398             -0.00213              0.01171         *
 * O              16     -0.02305             -0.00165             -0.00127         *
 * O              17     -0.00979              0.00724              0.01755         *
 * O              18     -0.00879              0.02156             -0.00749         *
 * O              19     -0.00043             -0.00439             -0.00699         *
 * O              20     -0.00196             -0.00412              0.02689         *
 * O              21      0.00257             -0.00463             -0.01466         *
 * O              22     -0.00696              0.00240             -0.00884         *
 * Al              1     -0.02488             -0.00967             -0.05417         *
 * Al              2      0.04783              0.00192             -0.02058         *
 * Al              3     -0.01938             -0.01553             -0.01442         *
 * Al              4      0.03215              0.00282             -0.00907         *
 * Al              5      0.02229             -0.00166             -0.00703         *
 * Al              6      0.01839             -0.00561              0.02494         *
 * P               1      0.02078              0.00946             -0.01160         *
 * S               1      0.00050              0.00271             -0.00184         *
 * S               2      0.00302             -0.00292             -0.01345         *
 * S               3      0.01246              0.01104              0.00934         *
 * S               4      0.00495             -0.01173             -0.02749         *
 *                                                                                  *
 ************************************************************************************
  
 +------------+-------------+-------------+-----------------+ <-- min BFGS
 |    Step    |   lambda    |   F.delta'  |    enthalpy     | <-- min BFGS
 +------------+-------------+-------------+-----------------+ <-- min BFGS
 |  previous  |    0.000000 |    0.189248 |   -12523.928242 | <-- min BFGS
 | trial step |    1.000000 |    0.105827 |   -12523.928778 | <-- min BFGS
 +------------+-------------+-------------+-----------------+ <-- min BFGS
  

--------------------------------------------------------------------------------
 BFGS: improving iteration         1 with line minimization (lambda=  2.268594)
--------------------------------------------------------------------------------
 
                           -------------------------------
                                     Cell Contents
                           -------------------------------
 
            xxxxxxxxxxxxxxxxxxxxxxxxxxxxxxxxxxxxxxxxxxxxxxxxxxxxxxxxxxxxxxxxx
            x  Element         Atom        Fractional coordinates of atoms  x
            x                 Number           u          v          w      x
            x---------------------------------------------------------------x
            x  H                 1         0.485655   0.174861   0.240804   x
            x  H                 2         0.561510   0.372474   0.085856   x
            x  H                 3         0.465710   0.394596   0.266655   x
            x  H                 4         0.427657   0.311725   0.406130   x
            x  H                 5         0.711981   0.398967   0.206253   x
            x  H                 6         0.665143   0.525410   0.331151   x
            x  H                 7         0.628859   0.276541   0.280825   x
            x  H                 8         0.647778   0.342107   0.397126   x
            x  H                 9         0.842277   0.411877   0.356801   x
            x  H                10         0.495285   0.591118   0.463376   x
            x  H                11         0.596161   0.412176   0.449286   x
            x  H                12         0.179441   0.578179   0.358374   x
            x  H                13         0.325885   0.358738   0.441952   x
            x  H                14         0.363411   0.518129   0.273775   x
            x  H                15         0.338105   0.686978   0.406183   x
            x  H                16         0.471507   0.445875   0.533141   x
            x  H                17         0.537572   0.533793   0.678237   x
            x  H                18         0.318911   0.533384   0.544234   x
            x  H                19         0.417474   0.626126   0.464396   x
            x  H                20         0.340559   0.566526   0.686079   x
            x  Li                1         0.672356   0.528163   0.490480   x
            x  Li                2         0.694280   0.392129   0.550004   x
            x  O                 1         0.516781   0.211582   0.231464   x
            x  O                 2         0.601312   0.384368   0.119718   x
            x  O                 3         0.458640   0.274748   0.390924   x
            x  O                 4         0.497080   0.362361   0.240292   x
            x  O                 5         0.596804   0.309092   0.304132   x
            x  O                 6         0.682150   0.406254   0.256805   x
            x  O                 7         0.668857   0.378366   0.432243   x
            x  O                 8         0.699758   0.513894   0.374669   x
            x  O                 9         0.802836   0.397882   0.323536   x
            x  O                10         0.550671   0.554008   0.415496   x
            x  O                11         0.455670   0.477824   0.358950   x
            x  O                12         0.547083   0.427449   0.449855   x
            x  O                13         0.571221   0.468807   0.292290   x
            x  O                14         0.218437   0.606019   0.368767   x
            x  O                15         0.365252   0.379194   0.415651   x
            x  O                16         0.354144   0.641076   0.404702   x
            x  O                17         0.334458   0.510007   0.324989   x
            x  O                18         0.312750   0.515837   0.480800   x
            x  O                19         0.430478   0.473422   0.535570   x
            x  O                20         0.456288   0.609360   0.503767   x
            x  O                21         0.492662   0.553862   0.684274   x
            x  O                22         0.354718   0.572294   0.624482   x
            x  Al                1         0.507305   0.282378   0.297555   x
            x  Al                2         0.591443   0.391547   0.234338   x
            x  Al                3         0.726578   0.429193   0.363345   x
            x  Al                4         0.296551   0.574747   0.391874   x
            x  Al                5         0.381069   0.464595   0.426621   x
            x  Al                6         0.438347   0.552165   0.597031   x
            x  P                 1         0.532051   0.485732   0.378352   x
            x  S                 1         0.798143   0.448331   0.514684   x
            x  S                 2         0.625855   0.472013   0.626409   x
            x  S                 3         0.713158   0.501779   0.691736   x
            x  S                 4         0.775092   0.533675   0.589877   x
            xxxxxxxxxxxxxxxxxxxxxxxxxxxxxxxxxxxxxxxxxxxxxxxxxxxxxxxxxxxxxxxxx
 
 
------------------------------------------------------------------------ <-- SCF
SCF loop      Energy           Fermi           Energy gain       Timer   <-- SCF
                               energy          per atom          (sec)   <-- SCF
------------------------------------------------------------------------ <-- SCF
Initial  -1.25213467E+004  0.00000000E+000                       574.96  <-- SCF
      1  -1.25213256E+004 -1.34514590E+000  -3.82432378E-004     580.50  <-- SCF
      2  -1.25213256E+004 -1.34514607E+000   1.93167468E-007     590.17  <-- SCF
      3  -1.25213254E+004 -1.34479154E+000  -4.47487242E-006     599.74  <-- SCF
      4  -1.25213256E+004 -1.34477287E+000   3.16337702E-006     609.48  <-- SCF
      5  -1.25213256E+004 -1.34462668E+000   6.04630063E-007     618.94  <-- SCF
      6  -1.25213256E+004 -1.34450829E+000   5.40974835E-008     628.18  <-- SCF
------------------------------------------------------------------------ <-- SCF
 
Final energy, E             =  -12521.32559359     eV
Final free energy (E-TS)    =  -12521.32559359     eV
(energies not corrected for finite basis set)
 
NB est. 0K energy (E-0.5TS)      =  -12521.32559359     eV
 
(SEDC) Total Energy Correction : -0.260339E+01 eV

Dispersion corrected final energy*, Ecor          =  -12523.92898270     eV
Dispersion corrected final free energy* (Ecor-TS) =  -12523.92898270     eV
NB dispersion corrected est. 0K energy* (Ecor-0.5TS) =  -12523.92898270     eV

 * not corrected for finite basis set

 
 ************************************** Forces **************************************
 *                                                                                  *
 *                           Cartesian components (eV/A)                            *
 * -------------------------------------------------------------------------------- *
 *                         x                    y                    z              *
 *                                                                                  *
 * H               1     -0.00327              0.02662             -0.01520         *
 * H               2      0.03626              0.00561              0.01341         *
 * H               3      0.00343             -0.00687             -0.02396         *
 * H               4      0.01926             -0.01068             -0.00535         *
 * H               5      0.01610             -0.01036             -0.00739         *
 * H               6      0.00452             -0.00347             -0.00380         *
 * H               7      0.01276              0.00424             -0.00084         *
 * H               8     -0.00030              0.00669              0.00840         *
 * H               9      0.01884             -0.00354              0.00144         *
 * H              10      0.01356             -0.00490             -0.00012         *
 * H              11     -0.01892             -0.00504             -0.00067         *
 * H              12     -0.02203             -0.01827              0.00161         *
 * H              13     -0.03884              0.00358              0.01173         *
 * H              14     -0.02497             -0.00381              0.02412         *
 * H              15     -0.00335              0.02344              0.00146         *
 * H              16      0.00597             -0.00094             -0.00545         *
 * H              17      0.00052              0.00045              0.00130         *
 * H              18      0.00376             -0.00225              0.00056         *
 * H              19      0.00165             -0.00414             -0.00767         *
 * H              20      0.00683              0.00198             -0.01322         *
 * Li              1     -0.01609              0.00287              0.00294         *
 * Li              2     -0.01713              0.00993              0.00654         *
 * O               1     -0.02707              0.00596              0.00373         *
 * O               2     -0.03170             -0.00888             -0.02567         *
 * O               3     -0.01055              0.03514              0.03402         *
 * O               4     -0.00117              0.00412              0.00009         *
 * O               5     -0.00330             -0.00177              0.00748         *
 * O               6     -0.01068              0.00844              0.04371         *
 * O               7      0.01416              0.00412             -0.00837         *
 * O               8      0.02264             -0.02332             -0.00092         *
 * O               9     -0.03344             -0.00100              0.00092         *
 * O              10      0.00373              0.01517              0.03163         *
 * O              11      0.01851              0.01379              0.01373         *
 * O              12     -0.01120             -0.01194              0.00202         *
 * O              13      0.00028             -0.00885             -0.01419         *
 * O              14      0.01716              0.00269              0.00689         *
 * O              15      0.01660              0.01505             -0.00229         *
 * O              16     -0.00240             -0.04040             -0.00072         *
 * O              17      0.01176              0.00577             -0.01143         *
 * O              18     -0.00447              0.01756             -0.00177         *
 * O              19     -0.00557              0.00173             -0.00335         *
 * O              20     -0.00029             -0.00231             -0.00306         *
 * O              21      0.00344             -0.00089             -0.00284         *
 * O              22     -0.01038             -0.00072              0.01223         *
 * Al              1     -0.02567              0.00714             -0.03212         *
 * Al              2      0.03910              0.00086              0.00128         *
 * Al              3     -0.01069             -0.01558             -0.01321         *
 * Al              4      0.00491              0.01272             -0.00809         *
 * Al              5      0.01938             -0.00377             -0.00252         *
 * Al              6      0.00390             -0.00767              0.01015         *
 * P               1     -0.00559             -0.03475              0.00497         *
 * S               1      0.00065              0.00103             -0.00235         *
 * S               2      0.00477             -0.00160             -0.01120         *
 * S               3      0.01074              0.01085              0.00589         *
 * S               4      0.00386             -0.00981             -0.02451         *
 *                                                                                  *
 ************************************************************************************
  
 +------------+-------------+-------------+-----------------+ <-- min BFGS
 |    Step    |   lambda    |   F.delta'  |    enthalpy     | <-- min BFGS
 +------------+-------------+-------------+-----------------+ <-- min BFGS
 |  previous  |    0.000000 |    0.189248 |   -12523.928242 | <-- min BFGS
 | trial step |    1.000000 |    0.105827 |   -12523.928778 | <-- min BFGS
 |  line step |    2.268594 |   -0.004866 |   -12523.928983 | <-- min BFGS
 +------------+-------------+-------------+-----------------+ <-- min BFGS
  
 BFGS: finished iteration     1 with enthalpy= -1.25239290E+004 eV
  
 +-----------+-----------------+-----------------+------------+-----+ <-- BFGS
 | Parameter |      value      |    tolerance    |    units   | OK? | <-- BFGS
 +-----------+-----------------+-----------------+------------+-----+ <-- BFGS
 |  dE/ion   |   1.346876E-005 |   1.000000E-005 |         eV | No  | <-- BFGS
 |  |F|max   |   5.003557E-002 |   3.000000E-002 |       eV/A | No  | <-- BFGS
 |  |dR|max  |   1.426275E-003 |   1.000000E-003 |          A | No  | <-- BFGS
 +-----------+-----------------+-----------------+------------+-----+ <-- BFGS
  

================================================================================
 Starting BFGS iteration          2 ...
================================================================================
  
 +------------+-------------+-------------+-----------------+ <-- min BFGS
 |    Step    |   lambda    |   F.delta'  |    enthalpy     | <-- min BFGS
 +------------+-------------+-------------+-----------------+ <-- min BFGS
 |  previous  |    0.000000 |    0.103074 |   -12523.928983 | <-- min BFGS
 +------------+-------------+-------------+-----------------+ <-- min BFGS
  

--------------------------------------------------------------------------------
 BFGS: starting iteration         2 with trial guess (lambda=  1.000000)
--------------------------------------------------------------------------------
 
                           -------------------------------
                                     Cell Contents
                           -------------------------------
 
            xxxxxxxxxxxxxxxxxxxxxxxxxxxxxxxxxxxxxxxxxxxxxxxxxxxxxxxxxxxxxxxxx
            x  Element         Atom        Fractional coordinates of atoms  x
            x                 Number           u          v          w      x
            x---------------------------------------------------------------x
            x  H                 1         0.485652   0.174872   0.240794   x
            x  H                 2         0.561519   0.372474   0.085858   x
            x  H                 3         0.465710   0.394594   0.266640   x
            x  H                 4         0.427659   0.311729   0.406131   x
            x  H                 5         0.711983   0.398963   0.206258   x
            x  H                 6         0.665147   0.525407   0.331152   x
            x  H                 7         0.628864   0.276544   0.280825   x
            x  H                 8         0.647777   0.342110   0.397131   x
            x  H                 9         0.842282   0.411873   0.356797   x
            x  H                10         0.495295   0.591114   0.463372   x
            x  H                11         0.596154   0.412173   0.449285   x
            x  H                12         0.179433   0.578173   0.358376   x
            x  H                13         0.325872   0.358743   0.441955   x
            x  H                14         0.363402   0.518128   0.273785   x
            x  H                15         0.338107   0.686980   0.406184   x
            x  H                16         0.471509   0.445875   0.533137   x
            x  H                17         0.537570   0.533794   0.678238   x
            x  H                18         0.318913   0.533382   0.544235   x
            x  H                19         0.417473   0.626125   0.464387   x
            x  H                20         0.340561   0.566526   0.686076   x
            x  Li                1         0.672347   0.528165   0.490483   x
            x  Li                2         0.694271   0.392135   0.550008   x
            x  O                 1         0.516769   0.211591   0.231470   x
            x  O                 2         0.601305   0.384366   0.119714   x
            x  O                 3         0.458643   0.274756   0.390944   x
            x  O                 4         0.497081   0.362360   0.240291   x
            x  O                 5         0.596803   0.309089   0.304137   x
            x  O                 6         0.682151   0.406257   0.256825   x
            x  O                 7         0.668865   0.378369   0.432238   x
[...]
            x  O                22         0.354707   0.572294   0.624481   x
            x  Al                1         0.507180   0.282424   0.297452   x
            x  Al                2         0.591584   0.391537   0.234334   x
            x  Al                3         0.726537   0.429136   0.363306   x
            x  Al                4         0.296558   0.574766   0.391836   x
            x  Al                5         0.381129   0.464601   0.426620   x
            x  Al                6         0.438341   0.552144   0.597060   x
            x  P                 1         0.532081   0.485692   0.378399   x
            x  S                 1         0.798148   0.448325   0.514669   x
            x  S                 2         0.625881   0.472011   0.626357   x
            x  S                 3         0.713201   0.501827   0.691753   x
            x  S                 4         0.775106   0.533639   0.589745   x
            xxxxxxxxxxxxxxxxxxxxxxxxxxxxxxxxxxxxxxxxxxxxxxxxxxxxxxxxxxxxxxxxx
 
 
------------------------------------------------------------------------ <-- SCF
SCF loop      Energy           Fermi           Energy gain       Timer   <-- SCF
                               energy          per atom          (sec)   <-- SCF
------------------------------------------------------------------------ <-- SCF
Initial  -1.25213583E+004  0.00000000E+000                       956.61  <-- SCF
      1  -1.25213263E+004 -1.34156570E+000  -5.82329354E-004     962.08  <-- SCF
      2  -1.25213263E+004 -1.34156577E+000   2.15805192E-007     971.74  <-- SCF
      3  -1.25213262E+004 -1.34161743E+000  -2.30670603E-006     981.25  <-- SCF
      4  -1.25213263E+004 -1.34170575E+000   2.11855431E-006     990.39  <-- SCF
      5  -1.25213263E+004 -1.34176836E+000   2.17902355E-007     999.75  <-- SCF
      6  -1.25213263E+004 -1.34184566E+000   9.31026450E-008    1008.59  <-- SCF
------------------------------------------------------------------------ <-- SCF
 
Final energy, E             =  -12521.32630017     eV
Final free energy (E-TS)    =  -12521.32630017     eV
(energies not corrected for finite basis set)
 
NB est. 0K energy (E-0.5TS)      =  -12521.32630017     eV
 
(SEDC) Total Energy Correction : -0.260355E+01 eV

Dispersion corrected final energy*, Ecor          =  -12523.92985110     eV
Dispersion corrected final free energy* (Ecor-TS) =  -12523.92985110     eV
NB dispersion corrected est. 0K energy* (Ecor-0.5TS) =  -12523.92985110     eV

 * not corrected for finite basis set

 
 ************************************** Forces **************************************
 *                                                                                  *
 *                           Cartesian components (eV/A)                            *
 * -------------------------------------------------------------------------------- *
 *                         x                    y                    z              *
 *                                                                                  *
 * H               1     -0.01391              0.01291             -0.01291         *
 * H               2      0.02195              0.00218              0.00890         *
 * H               3     -0.00247              0.00373             -0.01943         *
 * H               4     -0.00414              0.01291              0.00646         *
 * H               5      0.01796             -0.00863             -0.00421         *
 * H               6      0.00652             -0.00356             -0.00287         *
 * H               7      0.00302              0.00461              0.00441         *
 * H               8     -0.00352             -0.00111              0.00438         *
 * H               9      0.00894             -0.00416             -0.00044         *
 * H              10      0.00058             -0.00241              0.00662         *
 * H              11     -0.00437             -0.01098              0.00466         *
 * H              12     -0.01663             -0.01513              0.00285         *
 * H              13     -0.02736              0.00967              0.00641         *
 * H              14     -0.01256             -0.00095              0.00477         *
 * H              15     -0.00245              0.01823              0.00099         *
 * H              16      0.00155              0.00016             -0.00251         *
 * H              17      0.00226             -0.00099              0.00056         *
 * H              18     -0.00125              0.00213             -0.00207         *
 * H              19      0.00140             -0.00559             -0.00643         *
 * H              20      0.00203              0.00121             -0.00400         *
 * Li              1     -0.00467             -0.00090             -0.00478         *
 * Li              2     -0.00087             -0.00349              0.00228         *
 * O               1     -0.02316              0.00343             -0.01235         *
 * O               2     -0.00818             -0.00354             -0.01727         *
 * O               3      0.01389              0.01491              0.01083         *
 * O               4      0.00242              0.00630             -0.01538         *
 * O               5     -0.00435              0.00292             -0.00428         *
 * O               6     -0.00825              0.00046              0.01050         *
 * O               7      0.00161             -0.00148              0.00424         *
 * O               8      0.00829             -0.00525              0.00362         *
 * O               9     -0.01102             -0.00992             -0.00633         *
 * O              10      0.01764             -0.00893              0.02024         *
 * O              11      0.00547              0.01130              0.00548         *
 * O              12     -0.01263             -0.01249              0.00103         *
 * O              13     -0.00501              0.00131              0.01559         *
 * O              14      0.00888              0.00226              0.00251         *
 * O              15      0.00678              0.01474              0.00099         *
 * O              16      0.00701             -0.01797             -0.00293         *
 * O              17      0.00900             -0.00460             -0.00639         *
 * O              18      0.00821              0.00372              0.00012         *
 * O              19      0.00083             -0.00113              0.00241         *
 * O              20      0.00921             -0.00944             -0.00157         *
 * O              21      0.00134             -0.00043             -0.00056         *
 * O              22     -0.00160             -0.00046              0.00925         *
 * Al              1     -0.00306              0.01100              0.00260         *
 * Al              2     -0.00191             -0.00788              0.00765         *
 * Al              3      0.00639             -0.00290              0.00992         *
 * Al              4     -0.00994              0.00263              0.00337         *
 * Al              5     -0.00735              0.00277              0.00406         *
 * Al              6      0.00169              0.00209             -0.00122         *
 * P               1      0.00071             -0.00713             -0.01534         *
 * S               1      0.00236             -0.00825             -0.00360         *
 * S               2      0.00746              0.00306              0.00047         *
 * S               3      0.00422              0.00861             -0.00995         *
 * S               4      0.00103              0.00047             -0.01134         *
 *                                                                                  *
 ************************************************************************************
  
 +------------+-------------+-------------+-----------------+ <-- min BFGS
 |    Step    |   lambda    |   F.delta'  |    enthalpy     | <-- min BFGS
 +------------+-------------+-------------+-----------------+ <-- min BFGS
 |  previous  |    0.000000 |    0.051201 |   -12523.929643 | <-- min BFGS
 | trial step |    1.000000 |    0.041767 |   -12523.929851 | <-- min BFGS
 +------------+-------------+-------------+-----------------+ <-- min BFGS
  
 BFGS: finished iteration     4 with enthalpy= -1.25239299E+004 eV
  
 +-----------+-----------------+-----------------+------------+-----+ <-- BFGS
 | Parameter |      value      |    tolerance    |    units   | OK? | <-- BFGS
 +-----------+-----------------+-----------------+------------+-----+ <-- BFGS
 |  dE/ion   |   3.779263E-006 |   1.000000E-005 |         eV | Yes | <-- BFGS
 |  |F|max   |   2.971609E-002 |   3.000000E-002 |       eV/A | Yes | <-- BFGS
 |  |dR|max  |   8.739016E-004 |   1.000000E-003 |          A | Yes | <-- BFGS
 +-----------+-----------------+-----------------+------------+-----+ <-- BFGS
  
 BFGS: Geometry optimization completed successfully.

================================================================================
 BFGS: Final Configuration:
================================================================================
 
                           -------------------------------
                                     Cell Contents
                           -------------------------------
 
            xxxxxxxxxxxxxxxxxxxxxxxxxxxxxxxxxxxxxxxxxxxxxxxxxxxxxxxxxxxxxxxxx
            x  Element         Atom        Fractional coordinates of atoms  x
            x                 Number           u          v          w      x
            x---------------------------------------------------------------x
            x  H                 1         0.485593   0.174927   0.240724   x
            x  H                 2         0.561545   0.372460   0.085831   x
            x  H                 3         0.465702   0.394588   0.266526   x
            x  H                 4         0.427679   0.311754   0.406135   x
            x  H                 5         0.711991   0.398937   0.206327   x
            x  H                 6         0.665190   0.525385   0.331161   x
            x  H                 7         0.628902   0.276570   0.280833   x
            x  H                 8         0.647773   0.342129   0.397172   x
            x  H                 9         0.842292   0.411838   0.356755   x
            x  H                10         0.495340   0.591094   0.463383   x
            x  H                11         0.596087   0.412146   0.449289   x
            x  H                12         0.179416   0.578147   0.358405   x
            x  H                13         0.325800   0.358804   0.441962   x
            x  H                14         0.363358   0.518128   0.273810   x
            x  H                15         0.338128   0.686971   0.406188   x
            x  H                16         0.471516   0.445881   0.533112   x
            x  H                17         0.537584   0.533791   0.678245   x
            x  H                18         0.318924   0.533378   0.544236   x
            x  H                19         0.417487   0.626100   0.464360   x
            x  H                20         0.340571   0.566528   0.686075   x
            x  Li                1         0.672288   0.528173   0.490489   x
            x  Li                2         0.694213   0.392164   0.550040   x
            x  O                 1         0.516705   0.211645   0.231448   x
            x  O                 2         0.601316   0.384370   0.119700   x
            x  O                 3         0.458684   0.274828   0.391033   x
            x  O                 4         0.497099   0.362363   0.240256   x
            x  O                 5         0.596795   0.309076   0.304151   x
            x  O                 6         0.682170   0.406266   0.256888   x
            x  O                 7         0.668909   0.378381   0.432218   x
            x  O                 8         0.699820   0.513821   0.374641   x
            x  O                 9         0.802784   0.397888   0.323583   x
            x  O                10         0.550679   0.553979   0.415627   x
            x  O                11         0.455714   0.477879   0.359009   x
            x  O                12         0.547035   0.427390   0.449869   x
            x  O                13         0.571211   0.468781   0.292251   x
            x  O                14         0.218423   0.605984   0.368780   x
            x  O                15         0.365225   0.379205   0.415697   x
            x  O                16         0.354123   0.641049   0.404702   x
            x  O                17         0.334452   0.510012   0.325032   x
            x  O                18         0.312745   0.515897   0.480781   x
            x  O                19         0.430475   0.473418   0.535559   x
            x  O                20         0.456291   0.609347   0.503744   x
            x  O                21         0.492678   0.553862   0.684277   x
            x  O                22         0.354707   0.572294   0.624481   x
            x  Al                1         0.507180   0.282424   0.297452   x
            x  Al                2         0.591584   0.391537   0.234334   x
            x  Al                3         0.726537   0.429136   0.363306   x
            x  Al                4         0.296558   0.574766   0.391836   x
            x  Al                5         0.381129   0.464601   0.426620   x
            x  Al                6         0.438341   0.552144   0.597060   x
            x  P                 1         0.532081   0.485692   0.378399   x
            x  S                 1         0.798148   0.448325   0.514669   x
            x  S                 2         0.625881   0.472011   0.626357   x
            x  S                 3         0.713201   0.501827   0.691753   x
            x  S                 4         0.775106   0.533639   0.589745   x
            xxxxxxxxxxxxxxxxxxxxxxxxxxxxxxxxxxxxxxxxxxxxxxxxxxxxxxxxxxxxxxxxx
 
 
 BFGS: Final Enthalpy     = -1.25239299E+004 eV
 BFGS: Final <frequency>  =    1782.61679 cm-1
 
 ************************************** Forces **************************************
 *                                                                                  *
 *                           Cartesian components (eV/A)                            *
 * -------------------------------------------------------------------------------- *
 *                         x                    y                    z              *
 *                                                                                  *
 * H               1     -0.01391              0.01291             -0.01291         *
 * H               2      0.02195              0.00218              0.00890         *
 * H               3     -0.00247              0.00373             -0.01943         *
 * H               4     -0.00414              0.01291              0.00646         *
 * H               5      0.01796             -0.00863             -0.00421         *
 * H               6      0.00652             -0.00356             -0.00287         *
 * H               7      0.00302              0.00461              0.00441         *
 * H               8     -0.00352             -0.00111              0.00438         *
 * H               9      0.00894             -0.00416             -0.00044         *
 * H              10      0.00058             -0.00241              0.00662         *
 * H              11     -0.00437             -0.01098              0.00466         *
 * H              12     -0.01663             -0.01513              0.00285         *
 * H              13     -0.02736              0.00967              0.00641         *
 * H              14     -0.01256             -0.00095              0.00477         *
 * H              15     -0.00245              0.01823              0.00099         *
 * H              16      0.00155              0.00016             -0.00251         *
 * H              17      0.00226             -0.00099              0.00056         *
 * H              18     -0.00125              0.00213             -0.00207         *
 * H              19      0.00140             -0.00559             -0.00643         *
 * H              20      0.00203              0.00121             -0.00400         *
 * Li              1     -0.00467             -0.00090             -0.00478         *
 * Li              2     -0.00087             -0.00349              0.00228         *
 * O               1     -0.02316              0.00343             -0.01235         *
 * O               2     -0.00818             -0.00354             -0.01727         *
 * O               3      0.01389              0.01491              0.01083         *
 * O               4      0.00242              0.00630             -0.01538         *
 * O               5     -0.00435              0.00292             -0.00428         *
 * O               6     -0.00825              0.00046              0.01050         *
 * O               7      0.00161             -0.00148              0.00424         *
 * O               8      0.00829             -0.00525              0.00362         *
 * O               9     -0.01102             -0.00992             -0.00633         *
 * O              10      0.01764             -0.00893              0.02024         *
 * O              11      0.00547              0.01130              0.00548         *
 * O              12     -0.01263             -0.01249              0.00103         *
 * O              13     -0.00501              0.00131              0.01559         *
 * O              14      0.00888              0.00226              0.00251         *
 * O              15      0.00678              0.01474              0.00099         *
 * O              16      0.00701             -0.01797             -0.00293         *
 * O              17      0.00900             -0.00460             -0.00639         *
 * O              18      0.00821              0.00372              0.00012         *
 * O              19      0.00083             -0.00113              0.00241         *
 * O              20      0.00921             -0.00944             -0.00157         *
 * O              21      0.00134             -0.00043             -0.00056         *
 * O              22     -0.00160             -0.00046              0.00925         *
 * Al              1     -0.00306              0.01100              0.00260         *
 * Al              2     -0.00191             -0.00788              0.00765         *
 * Al              3      0.00639             -0.00290              0.00992         *
 * Al              4     -0.00994              0.00263              0.00337         *
 * Al              5     -0.00735              0.00277              0.00406         *
 * Al              6      0.00169              0.00209             -0.00122         *
 * P               1      0.00071             -0.00713             -0.01534         *
 * S               1      0.00236             -0.00825             -0.00360         *
 * S               2      0.00746              0.00306              0.00047         *
 * S               3      0.00422              0.00861             -0.00995         *
 * S               4      0.00103              0.00047             -0.01134         *
 *                                                                                  *
 ************************************************************************************

Writing analysis data to 2AlP-Li_5C.castep_bin

Writing model to 2AlP-Li_5C.check
 
 A BibTeX formatted list of references used in this run has been written to 
 2AlP-Li_5C.bib
 
Initialisation time =     22.01 s
Calculation time    =   1004.51 s
Finalisation time   =      1.36 s
Total time          =   1027.89 s
Peak Memory Use     = 21817640 kB
